ITEM: TIMESTEP
0
ITEM: NUMBER OF ATOMS
601
ITEM: BOX BOUNDS pp pp pp
-3.0000000000000000e+01 4.4000000000000000e+01
-3.6000000000000000e+01 2.1000000000000000e+01
-4.0000000000000000e+01 2.3000000000000000e+01
ITEM: ATOMS id type element x y z
1 23 N 1.324 -5.77 -9.642
2 2 H 1.93912 -4.9994 -9.31125
3 2 H 0.875863 -6.23047 -8.82423
4 2 H 0.588646 -5.38205 -10.2668
5 13 C 2.13901 -6.77099 -10.393
6 4 H 2.58386 -6.28315 -11.2477
7 15 C 3.24549 -7.32863 -9.46176
8 9 H 3.9207 -7.9855 -10.0508
9 9 H 3.94799 -7.96633 -10.0398
10 19 C 2.613 -8.161 -8.33
11 26 O 2.229 -7.54 -7.352
12 26 O 2.546 -9.367 -8.508
13 11 C 1.242 -7.918 -10.889
14 25 O 0.032 -7.85 -10.787
15 21 N 1.87017 -8.94001 -11.418
16 1 H 2.86117 -8.99893 -11.5101
17 13 C 1.10793 -10.116 -11.931
18 4 H 0.171865 -9.7883 -12.3586
19 16 C 1.93648 -10.8818 -12.9762
20 10 H 3.01955 -10.8254 -12.7351
21 10 H 1.63937 -11.9523 -12.9872
22 10 H 1.76614 -10.4621 -13.9906
23 11 C 0.841 -11.023 -10.735
24 25 O 1.727 -11.721 -10.278
25 21 N -0.375955 -10.983 -10.259
26 1 H -1.12024 -10.4178 -10.6061
27 13 C -0.753985 -11.835 -9.09098
28 4 H -0.0711779 -11.6361 -8.27821
29 15 C -2.20597 -11.4855 -8.69144
30 9 H -2.76705 -11.2325 -9.61638
31 9 H -2.79401 -11.2172 -9.59507
32 14 C -2.20654 -10.2936 -7.70069
33 9 H -3.25401 -10.0254 -7.44526
34 9 H -3.25136 -10.0591 -7.40453
35 19 C -1.576 -9.042 -8.346
36 26 O -2.321 -8.326 -8.995
37 26 O -0.383 -8.871 -8.156
38 11 C -0.62 -13.317 -9.489
39 25 O -0.517 -14.183 -8.642
40 21 N -0.62501 -13.5349 -10.7821
41 1 H -0.711094 -12.7912 -11.4404
42 13 C -0.504903 -14.89 -11.393
43 4 H 0.469846 -15.2955 -11.1653
44 14 C -1.63324 -15.8226 -10.8831
45 9 H -1.47165 -16.03 -9.8037
46 9 H -1.50872 -16.0387 -9.8005
47 12 C -1.556 -17.148 -11.655
48 12 C -0.665969 -18.128 -11.264
49 3 H -0.0223657 -17.9581 -10.4135
50 12 C -0.590028 -19.319 -11.957
51 3 H 0.108334 -20.0814 -11.6449
52 12 C -1.405 -19.537 -13.047
53 3 H -1.34599 -20.4692 -13.5891
54 12 C -2.37103 -17.373 -12.749
55 3 H -3.06864 -16.6114 -13.0648
56 12 C -2.29697 -18.562 -13.443
57 3 H -2.93537 -18.7311 -14.2975
58 11 C -0.64 -14.71 -12.912
59 31 O -1.733 -14.507 -13.401
60 21 N 0.462018 -14.78 -13.616
61 1 H 1.34874 -14.941 -13.1896
62 13 C 0.451003 -14.621 -15.11
63 4 H 1.45396 -14.38 -15.43
64 14 C 0.0210555 -15.9847 -15.7277
65 9 H 0.636589 -16.7625 -15.2273
66 9 H 0.617173 -16.7967 -15.2591
67 14 C 0.271217 -16.0028 -17.2623
68 9 H 0.756459 -15.046 -17.5509
69 9 H 0.695716 -15.0356 -17.6067
70 14 C -1.04553 -16.2792 -18.0151
71 9 H -1.3268 -17.3458 -17.8827
72 9 H -1.3229 -17.3507 -17.9186
73 24 N -0.832255 -15.9655 -19.4596
74 2 H 0.0584417 -15.6233 -19.7589
75 11 C -1.785 -16.124 -20.345
76 24 N -2.95898 -16.568 -19.9829
77 2 H -3.13885 -16.7908 -19.0248
78 2 H -3.67938 -16.6861 -20.6664
79 24 N -1.5241 -15.826 -21.587
80 2 H -0.619265 -15.4837 -21.8402
81 2 H -2.22931 -15.9369 -22.2873
82 11 C -0.493 -13.484 -15.567
83 25 O -1.45 -13.711 -16.283
84 21 N -0.176616 -12.293 -15.1167
85 1 H 0.626073 -12.2146 -14.5306
86 13 C -0.962005 -11.051 -15.441
87 4 H -0.74794 -10.3238 -14.6718
88 15 C -0.4489 -10.5068 -16.8134
89 9 H -0.99211 -9.56815 -17.0545
90 9 H -1.00148 -9.58484 -17.0944
91 17 C 0.28775 -12.352 -18.57
92 6 H 1.35198 -12.36 -18.3694
93 17 C -0.636 -11.547 -17.925
94 20 N -0.315942 -13.1091 -19.4651
95 1 H 0.114214 -13.8432 -19.9904
96 20 N -1.76475 -11.8616 -18.4683
97 1 H -2.64936 -11.4611 -18.2293
98 18 C -1.57952 -12.7743 -19.3674
99 7 H -2.36179 -13.2016 -19.9593
100 11 C -2.496 -11.247 -15.475
101 25 O -3.194 -10.637 -16.264
102 63 N -2.97001 -12.101 -14.604
103 47 H -2.42047 -12.6106 -13.9465
104 13 C -4.42801 -12.407 -14.505
105 4 H -4.75189 -12.8229 -15.4477
106 15 C -4.6334 -13.4432 -13.393
107 9 H -5.70202 -13.7463 -13.3706
108 9 H -5.70024 -13.7531 -13.3796
109 19 C -4.264 -12.825 -12.025
110 26 O -3.076 -12.689 -11.783
111 26 O -5.194 -12.52 -11.297
112 11 C -5.272 -11.163 -14.2
113 25 O -4.786 -10.203 -13.632
114 21 N -6.51708 -11.2352 -14.5951
115 1 H -6.91899 -12.0183 -15.0632
116 13 C -7.46603 -10.1071 -14.366
117 4 H -6.98266 -9.18434 -14.6512
118 14 C -8.72458 -10.3343 -15.2224
119 9 H -9.46904 -9.55465 -14.9536
120 9 H -9.51927 -9.59412 -14.988
121 27 O -9.1743 -11.635 -14.8681
122 1 H -10.0682 -11.7272 -15.2059
123 11 C -7.833 -10.058 -12.873
124 25 O -7.717 -11.054 -12.182
125 21 N -8.26301 -8.90788 -12.4201
126 1 H -8.36076 -8.08842 -12.9795
127 14 C -8.64394 -8.75906 -10.9859
128 5 H -7.98443 -9.38011 -10.3979
129 5 H -9.67895 -9.04199 -10.863
130 11 C -8.455 -7.313 -10.538
131 25 O -7.427 -6.967 -9.985
132 21 N -9.46109 -6.51603 -10.799
133 1 H -10.296 -6.80962 -11.2581
134 13 C -9.43591 -5.06394 -10.4191
135 4 H -8.65706 -4.57367 -10.9842
136 14 C -10.8223 -4.44303 -10.7774
137 9 H -10.6825 -3.3736 -11.0441
138 9 H -10.6876 -3.37987 -11.0705
139 12 C -11.79 -4.509 -9.577
140 12 C -12.308 -5.71998 -9.15599
141 3 H -12.0449 -6.6292 -9.67611
142 12 C -13.162 -5.77606 -8.07398
143 3 H -13.5597 -6.72826 -7.75525
144 12 C -13.51 -4.625 -7.399
145 27 O -14.359 -4.681 -6.31304
146 1 H -13.8216 -4.71703 -5.51839
147 12 C -12.142 -3.35897 -8.89801
148 3 H -11.7471 -2.40533 -9.21589
149 12 C -12.995 -3.41599 -7.818
150 3 H -13.261 -2.50809 -7.29705
151 11 C -9.131 -4.901 -8.912
152 25 O -8.63 -3.881 -8.483
153 21 N -9.46498 -5.94395 -8.18698
154 1 H -9.87604 -6.75816 -8.58959
155 13 C -9.27201 -6.02905 -6.70899
156 4 H -9.49188 -7.04244 -6.40717
157 15 C -7.77916 -5.70011 -6.38667
158 9 H -7.14578 -6.16798 -7.1704
159 9 H -7.13003 -6.19288 -7.14174
160 14 C -7.39997 -6.23706 -4.98959
161 9 H -8.27927 -6.1609 -4.31479
162 9 H -8.27475 -6.21751 -4.30498
163 19 C -6.286 -5.358 -4.394
164 26 O -6.613 -4.242 -4.024
165 26 O -5.17 -5.849 -4.343
166 11 C -10.226 -5.079 -5.963
167 25 O -11.231 -5.525 -5.443
168 21 N -9.89902 -3.81101 -5.92899
169 1 H -9.07915 -3.43722 -6.35572
170 13 C -10.749 -2.79801 -5.231
171 4 H -11.7536 -3.17985 -5.12404
172 13 C -10.1336 -2.53653 -3.83322
173 8 H -10.7734 -1.82678 -3.26645
174 16 C -10.0451 -3.85072 -3.03937
175 10 H -11.0151 -4.39106 -3.07709
176 10 H -9.25415 -4.50604 -3.46273
177 10 H -9.79719 -3.63604 -1.97788
178 16 C -8.7235 -1.94012 -3.99278
179 10 H -8.23654 -2.30106 -4.92386
180 10 H -8.79203 -0.832396 -4.04344
181 10 H -8.08064 -2.22417 -3.13233
182 11 C -10.823 -1.493 -6.044
183 25 O -10.442 -1.449 -7.197
184 21 N -11.3161 -0.47106 -5.38755
185 1 H -11.601 -0.595574 -4.44027
186 13 C -11.4659 0.87902 -6.01383
187 4 H -12.0493 0.768757 -6.91599
188 15 C -12.2046 1.80104 -5.00384
189 9 H -12.3297 1.25624 -4.0437
190 9 H -12.3928 1.26223 -4.05064
191 17 C -13.8502 3.02689 -6.68284
192 6 H -13.1169 3.49636 -7.32686
193 17 C -13.553 2.229 -5.59
194 20 N -15.1571 3.13106 -6.8271
195 1 H -15.6239 3.56792 -7.596
196 20 N -14.7088 1.88779 -5.12309
197 1 H -14.8558 1.30498 -4.32389
198 18 C -15.6467 2.41391 -5.84488
199 7 H -16.6926 2.27909 -5.66346
200 11 C -10.105 1.474 -6.401
201 25 O -9.765 1.5 -7.568
202 21 N -9.37016 1.93198 -5.41655
203 1 H -9.70018 1.88395 -4.47698
204 13 C -8.0202 2.53719 -5.6794
205 4 H -7.70168 2.22875 -6.66419
206 15 C -8.07998 4.09232 -5.55881
207 9 H -7.56141 4.40124 -4.62608
208 9 H -7.57606 4.43582 -4.63015
209 17 C -10.401 4.81403 -6.61583
210 6 H -10.1816 4.60759 -7.65607
211 17 C -9.521 4.62 -5.566
212 20 N -11.5461 5.28602 -6.16607
213 1 H -12.3752 5.41525 -6.71001
214 20 N -10.1855 4.98702 -4.52225
215 1 H -9.83549 4.97375 -3.58559
216 18 C -11.3685 5.37823 -4.87055
217 7 H -12.1111 5.73221 -4.18639
218 11 C -6.959 2.01 -4.721
219 32 O -5.79 2.325 -4.834
220 21 N -7.39309 1.20597 -3.79199
221 1 H -8.33972 0.921079 -3.6626
222 13 C -6.42894 0.626086 -2.79995
223 4 H -5.85873 1.42397 -2.34758
224 14 C -7.20702 -0.206007 -1.7426
225 9 H -8.27582 -0.189127 -2.04543
226 9 H -8.29315 -0.199834 -1.97627
227 14 C -7.01103 0.408811 -0.338901
228 9 H -6.95911 1.51655 -0.406282
229 9 H -6.99253 1.51847 -0.390319
230 19 C -5.691 -0.08 0.271
231 25 O -4.641 -0.013 -0.338
232 22 N -5.69894 -0.579456 1.47467
233 1 H -6.55552 -0.637169 1.98746
234 1 H -4.84726 -0.905394 1.88504
235 11 C -5.471 -0.263 -3.613
236 33 O -4.356 -0.523 -3.211
237 21 N -5.94411 -0.701974 -4.75504
238 1 H -6.86095 -0.490129 -5.0845
239 13 C -5.1341 -1.5607 -5.65518
240 4 H -4.83078 -2.44154 -5.10881
241 14 C -5.99939 -1.91697 -6.89057
242 9 H -6.88 -2.48343 -6.51913
243 9 H -6.89365 -2.4881 -6.56129
244 14 C -5.20876 -2.76541 -7.91759
245 9 H -5.90153 -3.10746 -8.71595
246 9 H -5.90571 -3.10051 -8.71527
247 14 C -4.57391 -3.98149 -7.2146
248 9 H -3.5514 -3.69872 -6.8847
249 9 H -3.54549 -3.71281 -6.89135
250 14 C -4.53325 -5.20177 -8.15007
251 9 H -5.50557 -5.31961 -8.6745
252 9 H -5.50721 -5.32609 -8.66992
253 23 N -4.26497 -6.43897 -7.36098
254 2 H -4.16802 -6.19704 -6.35417
255 2 H -5.05446 -7.10539 -7.48007
256 2 H -3.38498 -6.87901 -7.69801
257 11 C -3.884 -0.768 -6.058
258 34 O -2.789 -1.292 -6.067
259 64 N -4.08705 0.489028 -6.368
260 48 H -4.97067 0.950708 -6.35866
261 13 C -2.94696 1.35696 -6.77706
262 4 H -2.39348 0.860428 -7.56032
263 14 C -3.56092 2.69649 -7.32628
264 9 H -3.0031 2.95649 -8.25124
265 9 H -3.04427 2.97336 -8.27007
266 13 C -3.48409 3.8868 -6.34627
267 8 H -3.87579 3.54046 -5.36599
268 16 C -2.02154 4.41316 -6.22529
269 10 H -1.34978 3.89487 -6.94253
270 10 H -1.96352 5.50408 -6.4274
271 10 H -1.63644 4.23403 -5.19867
272 16 C -4.39034 5.01318 -6.87107
273 10 H -5.43155 4.64344 -6.98728
274 10 H -4.39405 5.8677 -6.16107
275 10 H -4.02713 5.36959 -7.85868
276 11 C -2.043 1.543 -5.55
277 35 O -0.839 1.464 -5.655
278 21 N -2.63897 1.785 -4.409
279 1 H -3.62597 1.85841 -4.28878
280 13 C -1.848 1.97601 -3.155
281 4 H -1.26106 2.87792 -3.24699
282 13 C -2.88701 2.10891 -2.01168
283 8 H -3.68271 1.34421 -2.13982
284 16 C -2.25404 1.91847 -0.639329
285 10 H -1.2456 2.38366 -0.608217
286 10 H -2.89439 2.3754 0.145204
287 10 H -2.16759 0.830369 -0.432233
288 16 C -3.54488 3.5007 -2.08585
289 10 H -4.03297 3.6458 -3.07329
290 10 H -4.31941 3.60468 -1.29616
291 10 H -2.785 4.29892 -1.9453
292 11 C -0.89 0.768 -2.992
293 36 O 0.302 0.931 -2.817
294 65 N -1.44311 -0.416018 -3.06502
295 49 H -2.41672 -0.573376 -3.2111
296 13 C -0.627199 -1.663 -2.9304
297 4 H -0.146633 -1.67003 -1.96324
298 14 C -1.54106 -2.89506 -3.09314
299 9 H -2.07335 -2.82494 -4.0658
300 9 H -2.04464 -2.86012 -4.08284
301 12 C -2.616 -2.954 -1.989
302 12 C -2.32003 -2.67301 -0.664008
303 3 H -1.31565 -2.40091 -0.374899
304 12 C -3.301 -2.739 0.302995
305 3 H -3.05899 -2.51799 1.33206
306 12 C -4.58802 -3.084 -0.0389804
307 3 H -5.35476 -3.13698 0.719766
308 12 C -3.91397 -3.29897 -2.31786
309 3 H -4.1644 -3.52135 -3.34462
310 12 C -4.8939 -3.36497 -1.34997
311 3 H -5.90422 -3.63633 -1.61832
312 11 C 0.466 -1.676 -4.003
313 37 O 1.615 -1.95 -3.718
314 66 N 0.0778925 -1.37297 -5.21503
315 50 H -0.861396 -1.14816 -5.46242
316 13 C 1.043 -1.34001 -6.355
317 4 H 1.39897 -2.34292 -6.53899
318 14 C 0.259468 -0.800381 -7.59875
319 9 H 0.047361 -1.64564 -8.28786
320 9 H 0.0158557 -1.65557 -8.2648
321 12 C 1.046 0.235 -8.42
322 12 C 2.09199 -0.174959 -9.221
323 3 H 2.35512 -1.22149 -9.26502
324 12 C 2.80592 0.740032 -9.96294
325 3 H 3.62192 0.400617 -10.5837
326 12 C 2.48003 2.07803 -9.91203
327 3 H 3.04069 2.7956 -10.4927
328 12 C 0.725083 1.58096 -8.37506
329 3 H -0.0899932 1.93143 -7.75925
330 12 C 1.437 2.49602 -9.115
331 3 H 1.17205 3.54182 -9.06501
332 11 C 2.232 -0.445 -5.949
333 38 O 3.369 -0.855 -6.042
334 67 N 1.93284 0.748059 -5.50099
335 51 H 0.997509 1.08339 -5.419
336 13 C 3.00001 1.708 -5.07301
337 4 H 3.58693 1.98297 -5.9369
338 16 C 2.33113 2.9409 -4.45008
339 10 H 1.46575 3.25951 -5.0697
340 10 H 1.97014 2.71988 -3.42287
341 10 H 3.05662 3.78062 -4.39658
342 11 C 3.939 1.042 -4.058
343 39 O 5.14 1.14 -4.179
344 68 N 3.37906 0.380007 -3.08001
345 52 H 2.39937 0.272313 -2.92961
346 13 C 4.23504 -0.306955 -2.05097
347 4 H 4.84256 0.436464 -1.55636
348 15 C 3.33929 -1.05774 -1.04999
349 9 H 2.64827 -1.7092 -1.62654
350 9 H 2.64413 -1.72923 -1.59787
351 14 C 2.54174 -0.0584364 -0.180173
352 9 H 3.07881 0.105566 0.778464
353 9 H 3.0925 0.134735 0.765169
354 19 C 1.159 -0.643 0.175
355 26 O 1.139 -1.738 0.714
356 26 O 0.194 0.043 -0.113
357 11 C 5.171 -1.306 -2.756
358 40 O 6.365 -1.315 -2.525
359 69 N 4.58103 -2.114 -3.60299
360 53 H 3.60352 -2.11368 -3.79918
361 13 C 5.33296 -3.14791 -4.38408
362 4 H 5.67647 -3.91606 -3.70707
363 15 C 4.40329 -3.73277 -5.46387
364 9 H 3.38835 -3.87256 -5.03413
365 9 H 3.36963 -3.8347 -5.06956
366 19 C 4.917 -5.103 -5.944
367 26 O 5.944 -5.094 -6.606
368 26 O 4.259 -6.08 -5.626
369 11 C 6.542 -2.478 -5.041
370 41 O 7.668 -2.898 -4.899
371 70 N 6.22503 -1.43001 -5.744
372 54 H 5.28089 -1.12051 -5.82662
373 13 C 7.21295 -0.596936 -6.48492
374 4 H 7.64956 -1.19776 -7.269
375 13 C 6.39227 0.561611 -7.09203
376 8 H 5.88286 1.11855 -6.27678
377 16 C 7.2454 1.56037 -7.84775
378 10 H 7.85366 1.04186 -8.61943
379 10 H 6.57854 2.30029 -8.33982
380 10 H 7.90885 2.09621 -7.13568
381 16 C 5.31085 -0.00816345 -8.02429
382 10 H 5.11283 -1.08023 -7.81032
383 10 H 4.37036 0.559531 -7.85842
384 10 H 5.61172 0.0857293 -9.08965
385 11 C 8.337 -0.119 -5.55
386 42 O 9.509 -0.312 -5.808
387 71 N 7.91086 0.48802 -4.47497
388 55 H 6.94061 0.620771 -4.28784
389 14 C 8.84896 1.03006 -3.44293
390 5 H 8.26115 1.28549 -2.57366
391 5 H 9.35477 1.8946 -3.84681
392 11 C 9.887 -0.014 -3.023
393 25 O 11.077 0.228 -3.086
394 72 N 9.38781 -1.15004 -2.60899
395 56 H 8.41691 -1.36934 -2.5518
396 13 C 10.2938 -2.25811 -2.16923
397 4 H 10.9493 -1.87466 -1.40131
398 14 C 9.43997 -3.41432 -1.59018
399 9 H 10.0865 -4.31459 -1.51361
400 9 H 10.0312 -4.34999 -1.49352
401 27 O 8.38386 -3.61829 -2.51493
402 1 H 7.97767 -4.46097 -2.2993
403 11 C 11.151 -2.767 -3.338
404 43 O 12.359 -2.853 -3.237
405 73 N 10.4839 -3.07899 -4.41901
406 57 H 9.49225 -2.98975 -4.47156
407 13 C 11.127 -3.59289 -5.66702
408 4 H 11.3903 -4.62733 -5.50279
409 14 C 10.1154 -3.45474 -6.8094
410 9 H 9.43914 -2.60864 -6.56231
411 9 H 9.42086 -2.61074 -6.61052
412 19 C 9.284 -4.737 -6.949
413 25 O 9.119 -5.271 -8.028
414 22 N 8.74554 -5.26149 -5.88417
415 1 H 8.87867 -4.82937 -4.99224
416 1 H 8.20077 -6.09669 -5.95944
417 11 C 12.415 -2.861 -6.022
418 44 O 13.394 -3.487 -6.366
419 74 N 12.3619 -1.55794 -5.93897
420 58 H 11.5347 -1.07235 -5.66691
421 13 C 13.537 -0.686971 -6.24522
422 4 H 13.5789 -0.547347 -7.31534
423 14 C 13.2908 0.652736 -5.54819
424 9 H 12.1928 0.751616 -5.41102
425 9 H 12.1959 0.799632 -5.43008
426 14 C 13.8504 1.78363 -6.41706
427 9 H 14.7638 1.42226 -6.93601
428 9 H 14.7624 1.42789 -6.94246
429 14 C 14.1947 3.00531 -5.54193
430 9 H 13.2695 3.33265 -5.02121
431 9 H 13.2787 3.37377 -5.03249
432 14 C 14.7783 4.12045 -6.42619
433 9 H 15.1618 4.95316 -5.79862
434 9 H 15.1547 4.95036 -5.79065
435 23 N 13.731 4.66203 -7.33695
436 2 H 12.8333 4.16415 -7.17005
437 2 H 13.6011 5.67755 -7.15408
438 2 H 14.0252 4.52192 -8.32458
439 11 C 14.876 -1.307 -5.79
440 45 O 15.86 -1.212 -6.493
441 75 N 14.8839 -1.93701 -4.63891
442 59 H 14.0848 -2.03534 -4.05088
443 14 C 16.1429 -2.56508 -4.12991
444 5 H 15.9308 -3.04431 -3.1856
445 5 H 16.9094 -1.81063 -4.03095
446 11 C 16.602 -3.647 -5.12
447 46 O 17.694 -3.592 -5.652
448 21 N 15.7328 -4.60201 -5.34893
449 1 H 14.8301 -4.65292 -4.92879
450 13 C 16.066 -5.716 -6.296
451 4 H 16.9389 -6.23396 -5.92703
452 16 C 14.865 -6.66237 -6.38592
453 10 H 14.6296 -7.07519 -5.38167
454 10 H 13.9715 -6.12171 -6.76499
455 10 H 15.0901 -7.50648 -7.07232
456 11 C 16.392 -5.149 -7.683
457 25 O 17.307 -5.591 -8.343
458 76 N 15.621 -4.17198 -8.07597
459 60 H 14.8707 -3.81249 -7.52647
460 13 C 15.791 -3.497 -9.393
461 4 H 15.608 -4.21903 -10.175
462 13 C 14.7331 -2.35618 -9.41245
463 8 H 14.7114 -1.87393 -8.41181
464 16 C 15.0524 -1.27776 -10.4621
465 10 H 16.0537 -0.837894 -10.2665
466 10 H 15.0303 -1.70742 -11.4864
467 10 H 14.3076 -0.455701 -10.3993
468 14 C 13.349 -3.01296 -9.67495
469 9 H 13.3573 -3.51692 -10.665
470 9 H 13.3665 -3.51634 -10.6652
471 16 C 12.198 -1.98904 -9.62095
472 10 H 11.2204 -2.49901 -9.75769
473 10 H 12.1844 -1.46831 -8.63964
474 10 H 12.3032 -1.22742 -10.4229
475 11 C 17.24 -3.013 -9.527
476 25 O 17.905 -3.341 -10.489
477 77 N 17.701 -2.24998 -8.56796
478 61 H 17.1904 -1.95371 -7.76453
479 13 C 19.109 -1.74415 -8.62079
480 4 H 19.2143 -1.11524 -9.49245
481 13 C 19.3984 -0.95962 -7.31783
482 8 H 19.2175 -1.62045 -6.44323
483 16 C 20.8675 -0.477785 -7.30806
484 10 H 21.1074 0.0594862 -8.25045
485 10 H 21.0448 0.209805 -6.45361
486 10 H 21.557 -1.34294 -7.20619
487 14 C 18.4492 0.269358 -7.26275
488 9 H 18.8535 1.08215 -7.90324
489 9 H 18.8624 1.08765 -7.89038
490 16 C 18.2779 0.754995 -5.81401
491 10 H 17.5556 1.59811 -5.77199
492 10 H 17.8935 -0.0648566 -5.17028
493 10 H 19.244 1.10905 -5.39485
494 11 C 20.06 -2.937 -8.774
495 25 O 20.941 -2.923 -9.61
496 78 N 19.8469 -3.942 -7.9609
497 62 H 19.1252 -3.96299 -7.27335
498 14 C 20.7141 -5.16104 -8.02689
499 5 H 20.275 -5.9224 -7.39928
500 5 H 21.7164 -4.89941 -7.72148
501 11 C 20.753 -5.696 -9.467
502 25 O 21.809 -5.951 -10.007
503 21 N 19.5919 -5.84699 -10.052
504 1 H 18.7123 -5.6435 -9.62901
505 13 C 19.496 -6.35701 -11.456
506 4 H 19.9359 -7.34288 -11.486
507 14 C 18.0088 -6.40675 -11.8663
508 9 H 17.5815 -5.40039 -11.6689
509 9 H 17.5418 -5.4162 -11.6791
510 13 C 17.2651 -7.50188 -11.0493
511 8 H 17.6678 -7.55339 -10.0152
512 16 C 15.7596 -7.17056 -10.9822
513 10 H 15.384 -6.85046 -11.9776
514 10 H 15.18 -8.0597 -10.6539
515 10 H 15.5801 -6.35119 -10.2537
516 16 C 17.4507 -8.87266 -11.7279
517 10 H 18.5297 -9.12876 -11.7948
518 10 H 16.9401 -9.6635 -11.1379
519 10 H 17.0235 -8.86267 -12.7534
520 11 C 20.284 -5.451 -12.417
521 25 O 21.059 -5.943 -13.214
522 21 N 20.059 -4.16198 -12.307
523 1 H 19.4221 -3.75647 -11.6559
524 13 C 20.767 -3.16898 -13.1818
525 4 H 20.4374 -3.30825 -14.2008
526 14 C 20.4437 -1.74017 -12.696
527 9 H 20.6371 -1.72086 -11.6021
528 9 H 20.629 -1.65881 -11.6035
529 14 C 18.9711 -1.38696 -12.993
530 9 H 18.889 -0.883227 -13.9798
531 9 H 18.93 -0.905727 -13.9935
532 28 S 18.115 -0.291 -11.835
533 16 C 19.3113 1.06609 -11.7971
534 10 H 19.6213 1.32594 -12.8319
535 10 H 18.8453 1.95409 -11.319
536 10 H 20.2031 0.760671 -11.2091
537 11 C 22.28 -3.414 -13.115
538 25 O 22.946 -3.507 -14.128
539 21 N 22.756 -3.511 -11.9
540 1 H 22.1959 -3.42938 -11.0792
541 13 C 24.2071 -3.75691 -11.636
542 4 H 24.7813 -2.94403 -12.0555
543 13 C 24.4076 -3.83165 -10.0899
544 8 H 23.6393 -4.49206 -9.63391
545 16 C 25.8126 -4.36795 -9.74258
546 10 H 26.5887 -3.85421 -10.3493
547 10 H 26.038 -4.20457 -8.66702
548 10 H 25.8644 -5.45879 -9.94679
549 16 C 24.2502 -2.41844 -9.495
550 10 H 23.289 -1.96374 -9.81675
551 10 H 24.2603 -2.46738 -8.38512
552 10 H 25.081 -1.75983 -9.82723
553 11 C 24.62 -5.072 -12.328
554 25 O 25.569 -5.102 -13.089
555 21 N 23.8799 -6.11099 -12.0319
556 1 H 23.1089 -6.05119 -11.4027
557 14 C 24.1351 -7.46199 -12.614
558 5 H 25.1119 -7.45889 -13.0747
559 5 H 23.3448 -7.69507 -13.3122
560 11 C 24.145 -8.5 -11.489
561 25 O 24.701 -8.258 -10.436
562 21 N 23.5269 -9.62603 -11.7471
563 1 H 23.0721 -9.81749 -12.6134
564 14 C 23.4659 -10.7211 -10.728
565 5 H 22.9469 -11.5577 -11.1719
566 5 H 22.9573 -10.3592 -9.84661
567 11 C 24.878 -11.186 -10.347
568 25 O 25.175 -11.389 -9.186
569 21 N 25.7 -11.332 -11.356
570 1 H 25.4496 -11.1603 -12.3056
571 13 C 27.112 -11.7779 -11.1613
572 4 H 27.1863 -12.2888 -10.2127
573 13 C 27.5074 -12.7353 -12.3361
574 8 H 27.783 -12.1399 -13.2327
575 16 C 28.7089 -13.6096 -11.9137
576 10 H 29.5727 -12.9776 -11.6158
577 10 H 28.4326 -14.2571 -11.0542
578 10 H 29.0255 -14.2586 -12.758
579 16 C 26.3291 -13.6705 -12.6975
580 10 H 25.9145 -14.1452 -11.7825
581 10 H 25.5191 -13.0975 -13.1975
582 10 H 26.6669 -14.4708 -13.39
583 11 C 28.023 -10.534 -11.128
584 25 O 29.157 -10.564 -11.569
585 21 N 27.477 -9.471 -10.593
586 1 H 26.5484 -9.45076 -10.2308
587 13 C 28.2151 -8.17202 -10.478
588 4 H 29.2738 -8.35379 -10.5899
589 13 C 27.7203 -7.19757 -11.5864
590 8 H 26.6565 -6.93523 -11.4022
591 16 C 28.5676 -5.91021 -11.5721
592 10 H 29.642 -6.15136 -11.7199
593 10 H 28.2433 -5.2257 -12.3848
594 10 H 28.4539 -5.37961 -10.6026
595 16 C 27.8449 -7.85987 -12.9737
596 10 H 28.8805 -8.22672 -13.1383
597 10 H 27.1449 -8.71845 -13.0582
598 10 H 27.5974 -7.12834 -13.7724
599 19 C 27.956 -7.566 -9.084
600 26 O 27.212 -8.20273 -8.29112
601 26 O 28.5013 -6.46431 -8.80731
ITEM: TIMESTEP
100000
ITEM: NUMBER OF ATOMS
601
ITEM: BOX BOUNDS pp pp pp
-3.0000000000000000e+01 4.4000000000000000e+01
-3.6000000000000000e+01 2.1000000000000000e+01
-4.0000000000000000e+01 2.3000000000000000e+01
ITEM: ATOMS id type element x y z
1 23 N 2.79541 -8.82218 -3.46478
2 2 H 2.70141 -8.37888 -2.528
3 2 H 2.09297 -8.30383 -4.0278
4 2 H 3.72178 -8.72352 -3.92335
5 13 C 2.35648 -10.272 -3.37934
6 4 H 3.20808 -10.8966 -3.6005
7 15 C 1.94358 -10.7472 -1.94681
8 9 H 2.03075 -11.8458 -1.80466
9 9 H 2.72886 -10.3856 -1.24803
10 19 C 0.626276 -10.2148 -1.65751
11 26 O 0.668531 -8.97408 -1.53303
12 26 O -0.330334 -10.9816 -1.56119
13 11 C 1.36299 -10.5902 -4.53269
14 25 O 1.47822 -10.0244 -5.64526
15 21 N 0.387738 -11.5179 -4.25372
16 1 H 0.200231 -11.7572 -3.30444
17 13 C -0.525208 -12.0732 -5.25128
18 4 H -0.0981868 -12.0905 -6.24458
19 16 C -0.81013 -13.5064 -4.82561
20 10 H -1.25693 -13.563 -3.80883
21 10 H -1.56153 -13.9389 -5.52176
22 10 H 0.0970064 -14.1473 -4.79991
23 11 C -1.85088 -11.2279 -5.18309
24 25 O -2.46281 -11.0791 -6.26169
25 21 N -2.17783 -10.617 -4.01425
26 1 H -1.56387 -10.5595 -3.23047
27 13 C -3.18334 -9.58329 -3.80649
28 4 H -2.96682 -9.2601 -2.79909
29 15 C -2.95239 -8.28626 -4.58514
30 9 H -2.66555 -8.57678 -5.61833
31 9 H -3.90139 -7.71583 -4.67386
32 14 C -1.90746 -7.26729 -3.95371
33 9 H -0.93571 -7.75586 -3.72274
34 9 H -1.56909 -6.33815 -4.4595
35 19 C -2.55461 -6.8054 -2.62559
36 26 O -3.78961 -7.10806 -2.34286
37 26 O -1.82321 -6.1735 -1.84851
38 11 C -4.59976 -10.0714 -3.70518
39 25 O -4.88422 -11.2526 -3.85702
40 21 N -5.54416 -9.17298 -3.25652
41 1 H -5.15292 -8.29478 -2.99094
42 13 C -6.99116 -9.35013 -3.1498
43 4 H -7.212 -10.2407 -2.57976
44 14 C -7.70418 -8.17439 -2.3939
45 9 H -7.24455 -8.02186 -1.39342
46 9 H -7.64662 -7.30779 -3.08729
47 12 C -9.22578 -8.52279 -2.13068
48 12 C -9.43169 -9.17234 -0.898288
49 3 H -8.69318 -9.45886 -0.163726
50 12 C -10.7956 -9.4607 -0.517918
51 3 H -11.1017 -9.93089 0.406599
52 12 C -11.8198 -9.05175 -1.28084
53 3 H -12.8262 -9.35298 -1.03375
54 12 C -10.2496 -8.08714 -2.94897
55 3 H -10.0117 -7.55443 -3.85885
56 12 C -11.5559 -8.4525 -2.56451
57 3 H -12.3612 -8.26486 -3.26013
58 11 C -7.51567 -9.53416 -4.57395
59 31 O -7.82116 -8.50745 -5.206
60 21 N -7.54287 -10.7883 -5.12514
61 1 H -7.34913 -11.6068 -4.59022
62 13 C -7.84122 -11.0185 -6.47069
63 4 H -7.84185 -12.0963 -6.52742
64 14 C -9.37188 -10.6456 -6.81899
65 9 H -10.0329 -11.0998 -6.05201
66 9 H -9.44605 -9.54099 -6.73582
67 14 C -9.7913 -10.9101 -8.23039
68 9 H -10.8964 -10.8093 -8.24184
69 9 H -9.49652 -11.9461 -8.5059
70 14 C -9.27306 -9.99079 -9.41128
71 9 H -8.16598 -10.0697 -9.34379
72 9 H -9.60321 -10.3739 -10.4018
73 24 N -9.67064 -8.61142 -9.10419
74 2 H -9.06076 -8.06701 -8.52844
75 11 C -10.5168 -7.9069 -9.79432
76 24 N -10.6367 -6.65825 -9.35598
77 2 H -10.0359 -6.37187 -8.60933
78 2 H -11.2191 -6.00185 -9.83371
79 24 N -11.2084 -8.31972 -10.827
80 2 H -11.5935 -7.52758 -11.3006
81 2 H -10.6686 -8.87035 -11.465
82 11 C -6.69252 -10.681 -7.37668
83 25 O -6.25808 -11.4834 -8.22699
84 21 N -6.19739 -9.47593 -7.37917
85 1 H -6.67531 -8.74963 -6.89217
86 13 C -4.83659 -9.11198 -7.73042
87 4 H -4.13277 -9.60635 -7.07575
88 15 C -4.28933 -9.32768 -9.17774
89 9 H -3.26653 -8.89646 -9.16208
90 9 H -4.14279 -10.429 -9.20678
91 17 C -5.2565 -9.66684 -11.5911
92 6 H -4.6914 -10.5238 -11.9325
93 17 C -5.1337 -9.0381 -10.3472
94 20 N -6.36625 -9.18548 -12.226
95 1 H -6.91833 -9.45821 -13.013
96 20 N -6.15098 -8.09746 -10.382
97 1 H -6.46719 -7.57693 -9.58768
98 18 C -6.85617 -8.20651 -11.5311
99 7 H -7.819 -7.77342 -11.7106
100 11 C -4.68223 -7.57877 -7.43121
101 25 O -3.80173 -6.89022 -8.02603
102 63 N -5.60131 -6.99969 -6.65416
103 47 H -6.19139 -7.58374 -6.10111
104 13 C -5.80973 -5.53918 -6.56919
105 4 H -4.88085 -5.04555 -6.8122
106 15 C -6.68841 -5.06748 -7.67992
107 9 H -6.10551 -5.14052 -8.62194
108 9 H -6.9788 -4.01112 -7.50162
109 19 C -7.88325 -5.99628 -7.8427
110 26 O -8.98646 -5.67153 -7.36007
111 26 O -7.58595 -7.02823 -8.443
112 11 C -6.31573 -5.10513 -5.18981
113 25 O -5.57788 -4.73447 -4.29232
114 21 N -7.64658 -4.88756 -5.09708
115 1 H -8.2276 -5.27566 -5.80906
116 13 C -8.17079 -3.89352 -4.1877
117 4 H -7.44296 -3.11099 -4.03043
118 14 C -9.32751 -3.17392 -4.91413
119 9 H -9.91687 -2.42356 -4.34418
120 9 H -8.86287 -2.61343 -5.75281
121 27 O -10.2508 -4.13723 -5.44694
122 1 H -9.8774 -4.49924 -6.25192
123 11 C -8.6602 -4.37578 -2.82264
124 25 O -7.91951 -4.31016 -1.85418
125 21 N -9.95999 -4.62044 -2.73057
126 1 H -10.4865 -4.75254 -3.56652
127 14 C -10.4888 -4.82273 -1.41645
128 5 H -9.88189 -5.42518 -0.757329
129 5 H -11.4951 -5.20165 -1.5108
130 11 C -10.8227 -3.50691 -0.883986
131 25 O -10.9371 -2.59119 -1.64168
132 21 N -10.9492 -3.31838 0.462491
133 1 H -10.7108 -3.97201 1.17869
134 13 C -10.9707 -1.9629 0.904911
135 4 H -10.3189 -1.34694 0.301321
136 14 C -12.4409 -1.36293 0.803229
137 9 H -12.957 -1.58856 1.76095
138 9 H -12.9262 -1.88754 -0.049047
139 12 C -12.4083 0.143741 0.459008
140 12 C -12.9673 1.0519 1.36074
141 3 H -13.4494 0.594993 2.2139
142 12 C -12.7903 2.38287 1.34817
143 3 H -13.2524 3.07978 2.02944
144 12 C -12.041 2.86318 0.255861
145 27 O -11.9051 4.28532 0.292411
146 1 H -11.7858 4.51997 1.21705
147 12 C -11.7567 0.681332 -0.69188
148 3 H -11.4096 0.0014958 -1.45349
149 12 C -11.5961 2.05307 -0.762356
150 3 H -11.0199 2.48372 -1.56857
151 11 C -10.4277 -1.97673 2.31968
152 25 O -9.91379 -3.01006 2.71085
153 21 N -10.4138 -0.86887 3.05036
154 1 H -10.4958 0.000952873 2.5707
155 13 C -10.0225 -0.693035 4.36362
156 4 H -10.4593 -1.40383 5.04796
157 15 C -8.50208 -0.648677 4.49098
158 9 H -8.07052 0.207093 3.92934
159 9 H -8.22068 -1.57584 3.95005
160 14 C -7.94718 -0.70969 5.98235
161 9 H -8.5514 -1.44669 6.5537
162 9 H -6.89886 -1.07398 6.02606
163 19 C -7.80051 0.679265 6.57936
164 26 O -7.59354 1.68132 5.87218
165 26 O -7.9063 0.789033 7.80436
166 11 C -10.5751 0.640778 4.72793
167 25 O -10.6305 1.5216 3.88857
168 21 N -10.9474 0.9253 6.00121
169 1 H -10.8402 0.248326 6.72454
170 13 C -11.4827 2.16174 6.44706
171 4 H -12.2837 2.37728 5.75706
172 13 C -11.9683 2.11809 7.92411
173 8 H -12.4239 3.04737 8.32689
174 16 C -12.9483 1.00909 7.99734
175 10 H -12.5314 0.0736273 7.56899
176 10 H -13.2814 0.71079 9.01435
177 10 H -13.8062 1.2449 7.33173
178 16 C -10.828 1.74346 8.90787
179 10 H -10.287 2.64516 9.26992
180 10 H -11.2073 1.23465 9.81935
181 10 H -10.123 0.993227 8.49038
182 11 C -10.8078 3.44417 6.26603
183 25 O -11.4333 4.44738 6.39678
184 21 N -9.55703 3.57478 5.95817
185 1 H -8.94896 2.78919 5.88336
186 13 C -8.89446 4.84055 5.65272
187 4 H -9.66407 5.59012 5.54188
188 15 C -7.87473 5.0971 6.82642
189 9 H -7.38356 6.0916 6.74746
190 9 H -7.18439 4.23115 6.73889
191 17 C -7.9456 4.07154 9.15908
192 6 H -7.109 3.39024 9.25128
193 17 C -8.34122 4.88352 8.20118
194 20 N -8.74862 4.34838 10.2505
195 1 H -8.82183 3.73999 11.0412
196 20 N -9.30842 5.75613 8.70659
197 1 H -9.86894 6.35444 8.13503
198 18 C -9.53933 5.39721 9.97919
199 7 H -10.1475 5.85214 10.7332
200 11 C -8.11931 4.68702 4.41285
201 25 O -7.09212 5.29357 4.11708
202 21 N -8.62387 3.74961 3.64066
203 1 H -9.44884 3.30752 3.98509
204 13 C -8.13736 3.16032 2.50046
205 4 H -8.70058 2.24213 2.41149
206 15 C -8.48297 3.89333 1.16839
207 9 H -7.90994 3.38503 0.364151
208 9 H -9.55561 3.67592 0.978081
209 17 C -9.1668 6.39918 0.879216
210 6 H -10.2474 6.31629 0.85919
211 17 C -8.2525 5.4286 1.15472
212 20 N -8.57432 7.62162 1.12777
213 1 H -9.01347 8.51988 1.16346
214 20 N -7.10996 6.05332 1.56644
215 1 H -6.32674 5.58023 1.9712
216 18 C -7.32529 7.36315 1.55321
217 7 H -6.57028 8.07128 1.8189
218 11 C -6.68396 2.64276 2.56547
219 32 O -6.04558 2.54056 1.50765
220 21 N -6.09468 2.2422 3.79624
221 1 H -6.67065 2.19509 4.60848
222 13 C -4.6809 1.73721 4.06844
223 4 H -4.03932 2.5943 3.9138
224 14 C -4.41098 1.21609 5.51314
225 9 H -5.10442 0.375444 5.73543
226 9 H -3.38471 0.793124 5.56477
227 14 C -4.55745 2.26803 6.59801
228 9 H -3.72662 2.99818 6.50087
229 9 H -5.47276 2.85223 6.36474
230 19 C -4.62365 1.77433 7.99985
231 25 O -5.33029 2.37404 8.79972
232 22 N -3.96921 0.64933 8.36978
233 1 H -3.43227 0.123386 7.70939
234 1 H -4.34287 0.260699 9.21068
235 11 C -4.27282 0.652307 3.05309
236 33 O -3.2566 0.642267 2.40178
237 21 N -5.10549 -0.348562 2.89275
238 1 H -6.00216 -0.28112 3.32167
239 13 C -5.00616 -1.46985 1.85031
240 4 H -4.20253 -2.08978 2.21842
241 14 C -6.26935 -2.30972 2.05099
242 9 H -6.33914 -2.7195 3.08064
243 9 H -7.17127 -1.66249 2.02435
244 14 C -6.42058 -3.3967 0.99556
245 9 H -7.42318 -3.87293 1.01512
246 9 H -6.41025 -3.04504 -0.0567659
247 14 C -5.40694 -4.48337 1.06383
248 9 H -5.44639 -5.01335 2.03859
249 9 H -4.35724 -4.12238 1.03129
250 14 C -5.44541 -5.64941 0.0304366
251 9 H -4.69713 -6.46361 0.14578
252 9 H -6.43411 -6.15444 -0.0173553
253 23 N -5.23931 -5.06744 -1.32426
254 2 H -6.11678 -4.81579 -1.82479
255 2 H -4.5504 -4.28948 -1.39698
256 2 H -4.69365 -5.78382 -1.84494
257 11 C -4.63515 -1.06502 0.361186
258 34 O -4.08688 -1.79358 -0.433065
259 64 N -5.03342 0.1581 -0.0883471
260 48 H -5.43494 0.888873 0.456088
261 13 C -4.80237 0.630392 -1.50763
262 4 H -4.65145 -0.139528 -2.24952
263 14 C -5.86694 1.68121 -2.02438
264 9 H -5.49602 2.13678 -2.96715
265 9 H -5.88841 2.47642 -1.24974
266 13 C -7.38552 1.09869 -2.15652
267 8 H -7.69515 0.964793 -1.09686
268 16 C -8.267 2.2058 -2.74261
269 10 H -9.28295 1.75847 -2.79366
270 10 H -8.3197 3.07659 -2.0551
271 10 H -7.91518 2.50429 -3.75399
272 16 C -7.48503 -0.186113 -3.04502
273 10 H -8.49331 -0.648893 -3.09151
274 10 H -6.92278 0.00611931 -3.98478